NO,FORMULA,COMPOUND NAME,MOLWT,TFP,TBP,TC,PC,VC,LDEN,TDEN,HVAP,VISA,VISB,DELHF,DELGF,CPVAPA,CPVAPB,CPVAPC,CPVAPD,ANTA,ANTB,ANTC,TMN,TMX,,title
225,C5H10O2,N-VALERIC ACID,102.134,-34.2,185.5,651,38.5,0.34,939,20,"49,823",729.09,341.13,-490.69,-357.43,13.389,5.03E-01,-2.93E-04,6.62E-08,17.6306,4092.15,-86.55,77,222,,"C5H10O2, N-VALERIC ACID"
226,C5H10O2,ISOBUTYL FORMATE,102.134,-95.2,98.4,551,38.8,0.35,885,20,"34,206",,,,,19.85,4.03E-01,-1.44E-04,-7.40E-09,16.2292,2980.47,-64.15,5,136,,"C5H10O2, ISOBUTYL FORMATE"
227,C5H10O2,N-PROPYL ACETATE,102.134,-95.2,101.6,549.4,33.3,0.345,887,20,"34,206",489.53,255.83,-466.03,,15.42,4.50E-01,-1.69E-04,-1.44E-08,16.2291,2980.47,-64.15,7,137,,"C5H10O2, N-PROPYL ACETATE"
228,C5H10O2,ETHYL PROPIONATE,102.134,-73.9,98.8,546,33.6,0.345,895,16,"34,248",463.31,248.72,-470.18,-323.72,19.854,4.03E-01,-1.44E-04,-7.40E-09,16.162,2935.11,-64.16,3,123,,"C5H10O2, ETHYL PROPIONATE"
229,C5H10O2,METHYL BUTYRATE,102.134,-84.8,102.6,554.4,34.8,0.34,898,20,"34,101",479.35,254.66,,,,,,,,,,,,,"C5H10O2, METHYL BUTYRATE"
230,C5H10O2,METHYL ISOBUTYRATE,102.134,-87.8,92.2,540.8,34.3,0.339,891,20,"33,386",451.21,246.09,,,,,,,,,,,,,"C5H10O2, METHYL ISOBUTYRATE"
231,C5H11N,PIPERIDINE,85.15,-10.5,106.5,594,47.6,0.289,862,20,"34,248",772.79,313.49,-49.03,,-53.068,6.29E-01,-3.36E-04,6.43E-08,16.1004,3015.46,-61.15,7,143,,"C5H11N, PIPERIDINE"
232,C5H12,N-PENTANE,72.151,-129.8,36,469.6,33.7,0.304,626,20,"25,791",313.66,182.48,-146.54,-8.37,-3.626,4.87E-01,-2.58E-04,5.30E-08,15.8333,2477.07,-39.94,-53,57,,"C5H12, N-PENTANE"
233,C5H12,2-METHYL BUTANE,72.151,-159.3,27.8,460.4,33.8,0.306,620,20,"24,702",367.32,191.58,-154.58,-14.82,-9.525,5.07E-01,-2.73E-04,5.72E-08,15.6338,2348.67,-40.05,-57,49,,"C5H12, 2-METHYL BUTANE"
234,C5H12,2;2-DIMETHYL PROPANE,72.151,-16.6,9.4,433.8,32,0.303,591,20,"22,768",355.54,196.35,-166.09,-15.24,-16.592,5.55E-01,-3.31E-04,7.63E-08,15.2069,2034.15,-45.37,-13,32,,"C5H12, 2;2-DIMETHYL PROPANE"
235,C5H12O,1-PENTANOL,88.15,-78.2,137.8,586,38.5,0.326,815,20,"44,380",1151.1,349.62,-298.94,-146.12,3.869,5.05E-01,-2.64E-04,5.12E-08,16.527,3026.89,-105,37,138,,"C5H12O, 1-PENTANOL"
236,C5H12O,2-METHYL-1-BUTANOL,88.15,-70.2,128.7,571,38.5,0.322,819,20,"45,217",1259.4,349.85,-302.71,-165.71,-9.483,5.68E-01,-3.48E-04,8.64E-08,16.2708,2752.19,-116.3,34,129,,"C5H12O, 2-METHYL-1-BUTANOL"
237,C5H12O,3-METHYL-1-BUTANOL,88.15,-117.2,131.2,579.5,38.5,0.329,810,20,"44,129",1148.8,349.51,-302.29,,-9.542,5.68E-01,-3.49E-04,8.65E-08,16.7127,3026.43,-104.1,25,153,,"C5H12O, 3-METHYL-1-BUTANOL"
238,C5H12O,2-METHYL-2-BUTANOL,88.15,-8.8,102,545,39.5,0.319,809,20,"40,612",1502,336.75,-329.92,-165.38,-12.087,6.10E-01,-4.20E-04,1.23E-07,15.0113,1988.08,-137.8,25,102,,"C5H12O, 2-METHYL-2-BUTANOL"
239,C5H12O,2;2-DIMETHYL-1-PROPANOL,88.15,53.8,113.1,549,39.5,0.319,783,54,"43,124",,,-293.08,-125.52,12.154,5.40E-01,-3.16E-04,7.12E-08,18.1336,3694.96,-65,55,133,,"C5H12O, 2;2-DIMETHYL-1-PROPANOL"
240,C5H12O,ETHYL PROPYL ETHER,88.15,-126.8,63.6,500.6,32.5,,733,20,"30,522",399.87,213.39,,,,,,,15.3549,2423.41,-62.28,-27,87,,"C5H12O, ETHYL PROPYL ETHER"
241,C5H12O,METHYL-T-BUTYL ETHER,88.15,-108.2,55.1,407.1,34.3,0.339,741,20,"27,646",,,-292.99,-125.52,2.533,5.14E-01,-2.60E-04,4.30E-08,16.4174,2913.7,-30.63,-88,88,,"C5H12O, METHYL-T-BUTYL ETHER"
242,C5H12O,BUTYLMETHYL ETHER,88.15,-115.5,70.1,512.8,34.3,0.329,,,,,,,,,,,,15.883,2666.26,-53.7,69,23,,"C5H12O, BUTYLMETHYL ETHER"
243,C6F6,PERFLUOROBENZENE,186.056,,80.2,516.7,33,,,,,,,-957.27,-879.98,36.283,5.27E-01,-4.55E-04,1.46E-07,16.194,2827.53,-57.66,-3,117,,"C6F6, PERFLUOROBENZENE"
244,C6F12,PERFLUOROCYCLOHEXANE,300.047,,52.5,457.2,24.3,,,,,,,,,,,,,13.9087,1374.07,-136.8,7,127,,"C6F12, PERFLUOROCYCLOHEXANE"
245,C6F14,PERFLUORO-N-HEXANE,338.044,-87.2,57.1,451.7,19,0.442,,,,,,,,,,,,15.8307,2488.59,-59.73,-3,57,,"C6F14, PERFLUORO-N-HEXANE"
246,C6H3Cl3,1;2;4-TRICHLOROBENZENE,181.449,16.8,213,734.9,39.8,0.401,,,,,,,,-14.361,6.09E-01,-5.62E-04,2.07E-07,16.8979,4452.5,-53,127,327,,"C6H3Cl3, 1;2;4-TRICHLOROBENZENE"
247,C6H4Cl2,O-DICHLOROBENZENE,147.004,-17.1,180.4,697.3,41,0.36,1306,20,"39,691",554.35,319.07,29.98,82.73,-14.302,5.51E-01,-4.51E-04,1.43E-07,16.2799,3798.23,-59.84,58,210,,"C6H4Cl2, O-DICHLOROBENZENE"
248,C6H4Cl2,M-DICHLOROBENZENE,147.004,-24.8,172.8,684,38.5,0.359,1288,20,"38,644",402.2,300.89,26.46,78.63,-13.59,5.49E-01,-4.51E-04,1.43E-07,16.8173,4104.13,-43.15,53,202,,"C6H4Cl2, M-DICHLOROBENZENE"
249,C6H4Cl2,P-DICHLOROBENZENE,147.004,53.1,174.1,685,39.5,0.372,1248,55,"38,812",483.82,312.03,23.03,77.2,-14.344,5.53E-01,-4.56E-04,1.45E-07,16.1135,3626.83,-64.64,54,204,,"C6H4Cl2, P-DICHLOROBENZENE"
250,C6H5Br,BROMOBENZENE,157.01,-30.9,156,670,45.2,0.324,1495,20,,508.18,302.42,105.09,138.62,-28.805,5.35E-01,-4.08E-04,1.21E-07,15.7972,3313,-67.71,47,177,,"C6H5Br, BROMOBENZENE"
251,C6H5Cl,CHLOROBENZENE,112.559,-45.6,131.7,632.4,45.2,0.308,1106,20,"36,572",477.76,276.22,51.87,99.23,-33.888,5.63E-01,-4.52E-04,1.43E-07,16.0676,3295.12,-55.6,47,147,,"C6H5Cl, CHLOROBENZENE"
252,C6H5F,FLUOROBENZENE,96.104,-39.2,85.3,560.1,45.5,0.271,1024,20,,452.06,252.89,-116.64,-69.08,-38.728,5.67E-01,-4.43E-04,1.36E-07,16.5487,3181.78,-37.59,-23,97,,"C6H5F, FLUOROBENZENE"
253,C6H5I,IODOBENZENE,204.011,-31.4,188.2,721,45.2,0.351,1855,4,"39,523",565.72,331.21,162.66,187.9,-29.274,5.56E-01,-4.51E-04,1.44E-07,16.1454,3776.53,-64.38,17,197,,"C6H5I, IODOBENZENE"
254,C6H5NO2,NITROBENZENE,123.112,4.8,210.6,712,35,0.337,1203,20,"44,031",,,-67.49,,,,,,16.1484,4032.66,-71.81,44,211,,"C6H5NO2, NITROBENZENE"
255,C6H6,BENZENE,78.114,5.5,80.1,562.1,48.9,0.259,885,16,"30,781",545.64,265.34,82.98,129.75,-33.917,4.74E-01,-3.02E-04,7.13E-08,15.9008,2788.51,-52.36,7,104,,"C6H6, BENZENE"
256,C6H6O,PHENOL,94.113,40.8,181.8,694.2,61.3,0.229,1059,40,"45,636",1405.5,370.07,-96.67,-32.91,-35.843,5.98E-01,-4.83E-04,1.53E-07,16.4279,3490.89,-98.59,72,208,,"C6H6O, PHENOL"
257,C6H7N,ANILINE,93.129,-6.2,184.3,699,53.1,0.27,1022,20,"41,868",1074.6,357.21,86.92,166.8,-40.516,6.38E-01,-5.13E-04,1.63E-07,16.6748,3857.52,-73.15,67,227,,"C6H7N, ANILINE"
258,C6H7N,4-METHYL PYRIDINE,93.129,3.7,145.3,646,44.6,0.311,955,20,"37,472",500.97,285.5,102.28,,-17.43,4.88E-01,-2.80E-04,5.45E-08,16.2143,3409.4,-62.65,27,187,,"C6H7N, 4-METHYL PYRIDINE"
259,C6H10,1;5-HEXADIENE,82.146,-141.2,59.4,507,34.5,0.328,692,20,"27,470",,,83.74,,,,,,16.1351,2728.54,-45.45,9,77,,"C6H10, 1;5-HEXADIENE"
260,C6H10,CYCLOHEXENE,82.146,-103.5,82.9,560.4,43.5,0.292,816,16,"30,480",506.92,264.54,-5.36,106.93,-68.651,7.25E-01,-5.41E-04,1.64E-07,15.8243,2813.53,-49.98,27,87,,"C6H10, CYCLOHEXENE"
261,C6H10O,CYCLOHEXANONE,98.145,-31.2,155.6,629,38.5,0.312,951,15,"39,775",787.38,336.47,-230.27,-90.81,-37.807,5.54E-01,-1.95E-04,-1.53E-08,,,,,,,"C6H10O, CYCLOHEXANONE"
262,C6H12,CYCLOHEXANE,84.162,6.5,80.7,553.4,40.7,0.308,779,20,"29,977",653.62,290.84,-123.22,31.78,-54.541,6.11E-01,-2.52E-04,1.32E-08,15.7527,2766.63,-50.5,7,107,,"C6H12, CYCLOHEXANE"
263,C6H12,METHYLCYCLOPENTANE,84.162,-142.5,71.8,532.7,37.9,0.319,754,16,"29,098",440.52,243.24,-105.93,35.8,-50.108,6.38E-01,-3.64E-04,8.01E-08,15.8023,2731,-47.11,-23,102,,"C6H12, METHYLCYCLOPENTANE"
264,C6H12,1-HEXENE,84.162,-139.9,63.4,504,31.7,0.35,673,20,"28,303",357.43,197.74,-41.7,87.5,-1.746,5.31E-01,-2.90E-04,6.05E-08,15.8089,2654.81,-47.3,-33,87,,"C6H12, 1-HEXENE"
265,C6H12,CIS-2-HEXENE,84.162,-141.2,68.8,518,32.8,0.351,687,20,"29,140",344.33,197.95,-52.38,76.28,-9.81,5.31E-01,-2.72E-04,4.83E-08,16.2057,2897.97,-39.3,-28,97,,"C6H12, CIS-2-HEXENE"
266,C6H12,TRANS-2-HEXENE,84.162,-133.2,67.8,516,32.7,0.351,678,20,"28,931",344.33,197.95,-53.93,76.49,-32.925,6.93E-01,-5.62E-04,2.00E-07,15.8727,2701.72,-48.62,-28,92,,"C6H12, TRANS-2-HEXENE"
267,C6H12,CIS-3-HEXENE,84.162,-137.9,66.4,517,32.8,0.35,680,20,"28,721",344.33,197.95,-47.65,83.07,-21.729,5.81E-01,-3.36E-04,7.46E-08,15.8384,2680.52,-48.4,-28,92,,"C6H12, CIS-3-HEXENE"
268,C6H12,TRANS-3-HEXENE,84.162,-113.5,67.1,519.9,32.5,0.35,677,20,"28,973",344.33,197.95,-54.47,77.67,-4.338,5.51E-01,-3.28E-04,8.05E-08,15.9288,2718.68,-47.77,-28,92,,"C6H12, TRANS-3-HEXENE"
269,C6H12,2-METHYL-2-PENTENE,84.162,-135.1,67.3,518,32.8,0.351,691,16,"29,015",,,-59.79,71.26,-14.75,5.67E-01,-3.34E-04,7.96E-08,15.9423,2725.89,-47.64,-28,97,,"C6H12, 2-METHYL-2-PENTENE"
270,C6H12,3-METHYL-CIS-2-PENTENE,84.162,-134.9,67.7,518,32.8,0.351,694,20,"28,847",,,-57.78,73.27,-14.75,5.67E-01,-3.34E-04,7.96E-08,15.9124,2731.79,-46.76,-25,91,,"C6H12, 3-METHYL-CIS-2-PENTENE"
271,C6H12,3-METHYL-TRANS-2-PENTENE,84.162,-138.5,70.4,521,32.9,0.35,698,20,"29,308",,,-58.7,71.34,-14.75,5.67E-01,-3.34E-04,7.96E-08,15.9484,2750.5,-48.33,-23,93,,"C6H12, 3-METHYL-TRANS-2-PENTENE"
272,C6H12,4-METHYL-CIS-2-PENTENE,84.162,-134.2,56.4,490,30.4,0.36,669,20,"27,591",,,-50.37,82.19,-1.675,5.38E-01,-3.04E-04,6.75E-08,15.7527,2580.52,-46.56,-35,79,,"C6H12, 4-METHYL-CIS-2-PENTENE"
273,C6H12,4-METHYL-TRANS-2-PENTENE,84.162,-141.2,58.5,493,30.4,0.36,669,20,"27,968",,,-54.39,79.67,12.627,5.15E-01,-3.01E-04,7.33E-08,15.8425,2631.57,-46,-33,81,,"C6H12, 4-METHYL-TRANS-2-PENTENE"
274,C6H12,2;3-DIMETHYL-1-BUTENE,84.162,-157.3,55.6,501,32.4,0.343,678,20,"27,424",,,-55.77,79.09,7.025,5.59E-01,-3.70E-04,1.06E-07,15.8012,2612.69,-43.78,-38,87,,"C6H12, 2;3-DIMETHYL-1-BUTENE"
275,C6H12,2;3-DIMETHYL-2-BUTENE,84.162,-74.3,73.2,524,33.6,0.351,708,20,"29,655",,,-59.24,75.91,2.294,4.83E-01,-2.20E-04,3.04E-08,16.0043,2798.63,-47.71,-23,102,,"C6H12, 2;3-DIMETHYL-2-BUTENE"
276,C6H12,3;3-DIMETHYL-1-BUTENE,84.162,-115.2,41.2,490,32.5,0.34,653,20,"25,665",,,-43.17,98.22,-12.556,5.48E-01,-2.92E-04,5.21E-08,15.3755,2326.8,-48.24,-48,67,,"C6H12, 3;3-DIMETHYL-1-BUTENE"
277,C6H12O,CYCLOHEXANOL,100.161,24.8,161.1,625,37.5,0.327,942,30,"45,511",,,-294.75,-117.98,-55.534,7.21E-01,-4.09E-04,8.24E-08,,,,,,,"C6H12O, CYCLOHEXANOL"
278,C6H12O,METHYL ISOBUTYL KETONE,100.161,-84.2,116.4,571,32.7,0.371,801,20,"35,588",473.65,259.03,-284.03,,3.894,5.66E-01,-3.32E-04,8.23E-08,15.7165,2893.66,-70.75,12,152,,"C6H12O, METHYL ISOBUTYL KETONE"
279,C6H12O2,N-BUTYL ACETATE,116.16,-73.5,126,579,31.4,0.4,898,0,"36,006",537.58,272.3,-486.76,,13.62,5.49E-01,-2.28E-04,-7.91E-10,16.1836,3151.09,-69.15,22,162,,"C6H12O2, N-BUTYL ACETATE"
280,C6H12O2,ISOBUTYL ACETATE,116.16,-98.9,116.8,561,30.4,0.414,875,20,"35,873",533.99,270.49,-495.47,,7.31,5.74E-01,-2.58E-04,1.10E-08,16.1714,3092.83,-66.15,16,154,,"C6H12O2, ISOBUTYL ACETATE"
281,C6H12O2,ETHYL BUTYRATE,116.16,-93.2,120.8,566,31.4,0.395,879,20,"34,332",489.95,264.22,,,21.508,4.93E-01,-1.94E-04,3.56E-09,15.9987,3127.6,-60.15,15,159,,"C6H12O2, ETHYL BUTYRATE"
282,C6H12O2,ETHYL ISOBUTYRATE,116.16,-88.2,111,553,30.4,0.41,869,20,"35,023",,,,,,,,,,,,,,,"C6H12O2, ETHYL ISOBUTYRATE"
283,C6H12O2,N-PROPYL PROPIONATE,116.16,-75.9,122.5,578,,,881,20,"36,383",,,,,,,,,16.8641,3558.18,-47.86,19,147,,"C6H12O2, N-PROPYL PROPIONATE"
284,C6H14,N-HEXANE,86.178,-95.4,68.7,507.4,29.7,0.37,659,20,"28,872",362.79,207.09,-167.3,-0.25,-4.413,5.82E-01,-3.12E-04,6.49E-08,15.8366,2697.55,-48.78,-28,97,,"C6H14, N-HEXANE"
285,C6H14,2-METHYL PENTANE,86.178,-153.7,60.2,497.5,30.1,0.367,653,20,"27,800",384.13,208.27,-174.42,-5.02,-10.567,6.18E-01,-3.57E-04,8.08E-08,15.7476,2614.38,-46.58,-33,97,,"C6H14, 2-METHYL PENTANE"
286,C6H14,3-METHYL PENTANE,86.178,-118.2,63.2,504.4,31.2,0.367,664,20,"28,093",372.11,207.55,-171.74,-2.14,-2.386,5.69E-01,-2.87E-04,5.03E-08,15.7701,2653.43,-46.02,-33,92,,"C6H14, 3-METHYL PENTANE"
287,C6H14,2;2-DIMETHYL BUTANE,86.178,-99.9,49.7,488.7,30.8,0.359,649,20,"26,322",438.44,226.67,-185.68,-9.63,-16.634,6.29E-01,-3.48E-04,6.85E-08,15.5536,2489.5,-43.81,-43,77,,"C6H14, 2;2-DIMETHYL BUTANE"
288,C6H14,2;3-DIMETHYL BUTANE,86.178,-128.6,58,499.9,31.3,0.358,662,20,"27,298",444.19,228.86,-177.9,-4.1,-14.608,6.15E-01,-3.38E-04,6.82E-08,15.6802,2595.44,-44.25,-38,81,,"C6H14, 2;3-DIMETHYL BUTANE"
289,C6H14O,1-HEXANOL,102.177,-44,157,610,40.5,0.381,819,20,"48,567",1179.4,354.94,-317.78,-135.65,4.811,5.89E-01,-3.01E-04,5.43E-08,18.0994,4055.45,-76.49,35,157,,"C6H14O, 1-HEXANOL"
290,C6H14O,ETHYL BUTYL ETHER,102.177,-103.2,92.2,531,30.4,0.39,749,20,"31,820",443.32,234.68,,,23.626,5.37E-01,-2.53E-04,4.16E-08,16.0477,2921.52,-55.15,-8,127,,"C6H14O, ETHYL BUTYL ETHER"
291,C6H14O,DIISOPROPYL ETHER,102.177,-85.5,68.3,500,28.8,0.386,724,20,"29,349",410.58,219.67,-319.03,-121.96,7.503,5.85E-01,-3.03E-04,5.84E-08,16.3417,2895.73,-43.15,-24,91,,"C6H14O, DIISOPROPYL ETHER"
292,C6H15N,DIPROPYLAMINE,101.193,-63.2,109.2,550,31.4,0.407,738,20,"37,011",561.11,257.39,,,6.46,6.29E-01,-3.39E-04,7.07E-08,16.5939,3259.08,-55.15,29,149,,"C6H15N, DIPROPYLAMINE"
293,C6H15N,TRIETHYLAMINE,101.193,-114.8,89.5,535,30.4,0.39,728,20,"31,401",355.52,214.48,-99.65,110.36,-18.43,7.16E-01,-4.39E-04,1.09E-07,15.8853,2882.38,-51.15,-13,127,,"C6H15N, TRIETHYLAMINE"
294,C7F14,PERFLUOROMETHYLCYCLOHEXANE,350.055,,76.3,486.8,23.3,,,,,,,-2898.1,,,,,,15.713,2610.57,-61.93,17,112,,"C7F14, PERFLUOROMETHYLCYCLOHEXANE"
295,C7F16,PERFLUORO-N-HEPTANE,388.051,-78.2,82.5,474.8,16.2,0.664,1733,20,,,,-3386.7,-3089.31,,,,,15.9747,2719.68,-64.5,-3,117,,"C7F16, PERFLUORO-N-HEPTANE"
296,C7H5N,BENZONITRILE,103.124,-13.2,190.8,699.4,42.2,,1010,15,,,,218.97,261.05,-26.004,5.73E-01,-4.43E-04,1.35E-07,,,,,,,"C7H5N, BENZONITRILE"
297,C7H6O,BENZALDEHYDE,106.124,-57.2,178.8,695,46.6,,1045,20,"42,705",686.84,314.66,-36.8,22.4,-12.142,4.96E-01,-2.85E-04,5.17E-08,16.3501,3748.62,-66.12,27,187,,"C7H6O, BENZALDEHYDE"
298,C7H6O2,BENZOIC ACID,122.124,122.4,249.8,752,45.6,0.341,1075,130,"50,660",2617.6,407.88,-290.4,-210.55,-51.292,6.29E-01,-4.24E-04,1.06E-07,17.1634,4190.7,-125.2,132,287,,"C7H6O2, BENZOIC ACID"
299,C7H7NO2,O-NITROTOLUENE,137.139,-9.2,222.1,720,34,0.371,1167,20,"45,487",,,-265.86,,,,,,14.2028,2603.49,-151.52,222,129,,"C7H7NO2, O-NITROTOLUENE"
300,C7H7NO2,M-NITROTOLUENE,137.139,16,233.1,725,30.5,0.371,1158,20,"46,090",,,-265.86,,,,,,,,,,,,"C7H7NO2, M-NITROTOLUENE"
301,C7H7NO2,P-NITROTOLUENE,137.139,54.8,238,735,30.1,0.371,1164,20,"46,875",,,,,,,,,16.0433,3914.07,-90.45,233,129,,"C7H7NO2, P-NITROTOLUENE"
302,C7H8,TOLUENE,92.141,-95.2,110.6,591.7,41.1,0.316,867,20,"33,201",467.33,255.24,50.03,122.09,-24.355,5.12E-01,-2.77E-04,4.91E-08,16.0137,3096.52,-53.67,7,137,,"C7H8, TOLUENE"
303,C7H8O,METHYL PHENYL ETHER,108.14,-37.5,153.6,641,41.7,,996,20,,388.84,325.85,,,,,,,16.2394,3430.82,-69.58,97,167,,"C7H8O, METHYL PHENYL ETHER"
304,C7H8O,BENZYL ALCOHOL,108.14,-15.4,205.4,677,46.6,0.334,1041,25,"50,535",1088,367.21,-94.08,,-7.398,5.48E-01,-3.36E-04,7.77E-08,17.4582,4384.81,-73.15,112,330,,"C7H8O, BENZYL ALCOHOL"
305,C7H8O,O-CRESOL,108.14,30.9,191,697.6,50.1,0.282,1028,40,"45,217",1533.4,365.61,-128.7,-37.1,-32.276,7.00E-01,-5.92E-04,2.12E-07,15.9148,3305.37,-108,97,207,,"C7H8O, O-CRESOL"
306,C7H8O,M-CRESOL,108.14,12.2,202.2,705.8,45.6,0.31,1034,20,"47,436",1785.6,370.75,-132.43,-40.57,-45.008,7.26E-01,-6.03E-04,2.08E-07,17.2878,4274.42,-74.09,97,207,,"C7H8O, M-CRESOL"
307,C7H8O,P-CRESOL,108.14,34.7,201.9,704.6,51.5,,1019,40,"47,478",1826.9,372.68,-125.48,-30.9,-40.633,7.05E-01,-5.76E-04,1.97E-07,16.1989,3479.39,-111.3,97,207,,"C7H8O, P-CRESOL"
308,C7H9N,2;3-DIMETHYLPYRIDINE,107.156,,160.8,655.4,,,942,25,,,,68.29,,,,,,17.1492,4219.74,-33.04,147,167,,"C7H9N, 2;3-DIMETHYLPYRIDINE"
309,C7H9N,2;5-DIMETHYLPYRIDINE,107.156,,157,644.2,,,938,0,,,,66.44,,,,,,16.3046,3545.14,-63.59,77,162,,"C7H9N, 2;5-DIMETHYLPYRIDINE"
310,C7H9N,3;4-DIMETHYLPYRIDINE,107.156,,179.1,683.8,,,954,25,,,,70.05,,,,,,16.9517,4237.04,-41.65,127,187,,"C7H9N, 3;4-DIMETHYLPYRIDINE"
311,C7H9N,3;5-DIMETHYLPYRIDINE,107.156,,171.9,667.2,,,939,25,,,,72.81,,,,,,16.885,4106.95,-44.45,127,187,,"C7H9N, 3;5-DIMETHYLPYRIDINE"
312,C7H9N,METHYLPHENYLAMINE,107.156,-57.2,195.9,701,52,,989,20,,915.12,332.74,85.41,199.33,,,,,16.3066,3756.28,-80.71,47,207,,"C7H9N, METHYLPHENYLAMINE"
313,C7H9N,O-TOLUIDINE,107.156,-14.8,200.1,694,37.5,0.343,998,20,"45,364",1085.1,356.46,,,,,,,16.7834,4072.58,-72.15,102,227,,"C7H9N, O-TOLUIDINE"
314,C7H9N,M-TOLUIDINE,107.156,-30.4,203.3,709,41.5,0.343,989,20,"45,636",928.12,354.07,,,-15.989,5.68E-01,-3.03E-04,4.64E-08,16.7498,4080.32,-73.15,82,227,,"C7H9N, M-TOLUIDINE"
315,C7H9N,P-TOLUIDINE,107.156,43.7,200.1,667,,,964,50,"44,799",738.9,356.02,,,,,,,16.6968,4041.04,-72.15,77,227,,"C7H9N, P-TOLUIDINE"
316,C7H14,CYCLOHEPTANE,98.189,-8.2,118.7,589,37.2,0.39,810,20,"33,076",,,-119.41,63.05,-76.187,7.87E-01,-4.20E-04,7.56E-08,15.7818,3066.05,-56.8,57,162,,"C7H14, CYCLOHEPTANE"
317,C7H14,1;1-DIMETHYLCYCLOPENTANE,98.189,-69.8,87.8,547,34.5,0.36,759,16,"30,312",,,-138.37,39.06,-57.891,7.67E-01,-4.50E-04,1.01E-07,15.6973,2807.94,-51.2,-13,117,,"C7H14, 1;1-DIMETHYLCYCLOPENTANE"
318,C7H14,CIS-1;2-DIMETHYLCYCLOPENTANE,98.189,-53.9,99.5,564.8,34.5,0.368,777,16,"31,719",,,-129.62,45.76,-55.643,7.62E-01,-4.48E-04,1.01E-07,15.7729,2922.3,-52.94,-3,127,,"C7H14, CIS-1;2-DIMETHYLCYCLOPENTANE"
319,C7H14,TRANS-1;2-DIMETHYLCYCLOPENTANE,98.189,-117.6,91.8,553.2,34.5,0.362,756,16,"30,878",,,-136.78,38.39,-54.521,7.59E-01,-4.48E-04,1.02E-07,15.7594,2861.53,-51.46,-13,117,,"C7H14, TRANS-1;2-DIMETHYLCYCLOPENTANE"
320,C7H14,ETHYLCYCLOPENTANE,98.189,-138.5,103.4,569.5,33.9,0.375,771,16,"32,301",433.81,249.72,-127.15,44.59,-55.312,7.51E-01,-4.40E-04,1.00E-07,15.8581,2990.13,-52.47,-3,129,,"C7H14, ETHYLCYCLOPENTANE"
321,C7H14,METHYLCYCLOHEXANE,98.189,-126.6,100.9,572.1,34.8,0.368,774,16,"31,150",528.41,271.58,-154.87,27.3,-61.919,7.84E-01,-4.44E-04,9.37E-08,15.7105,2926.04,-51.75,-3,127,,"C7H14, METHYLCYCLOHEXANE"
322,C7H14,1-HEPTENE,98.189,-118.9,93.6,537.2,28.4,0.44,679,20,"31,108",368.69,214.32,-62.34,95.88,-3.303,6.30E-01,-3.51E-04,7.61E-08,15.8894,2895.51,-53.97,-8,127,,"C7H14, 1-HEPTENE"
323,C7H14,2;3;3-TRIMETHYL-1-BUTENE,98.189,-109.9,77.8,533,29,0.4,705,20,"28,889",,,-86.54,,,,,,15.6536,2719.47,-49.56,-20,102,,"C7H14, 2;3;3-TRIMETHYL-1-BUTENE"
324,C7H16,N-HEPTANE,100.205,-90.6,98.4,540.2,27.4,0.432,684,20,"31,719",436.73,232.53,-187.9,8,-5.146,6.76E-01,-3.65E-04,7.66E-08,15.8737,2911.32,-56.51,-3,127,,"C7H16, N-HEPTANE"
325,C7H16,2-METHYLHEXANE,100.205,-118.3,90,530.3,27.4,0.421,679,20,"30,689",417.46,225.13,-195.06,3.22,-39.389,8.64E-01,-6.29E-04,1.84E-07,15.8261,2845.06,-53.6,-9,117,,"C7H16, 2-METHYLHEXANE"
326,C7H16,3-METHYLHEXANE,100.205,-173.2,91.8,535.2,28.2,0.404,687,20,"30,815",,,-192.43,4.61,-7.046,6.84E-01,-3.73E-04,7.83E-08,15.8133,2855.66,-53.93,-8,117,,"C7H16, 3-METHYLHEXANE"
327,C7H16,2;2-DIMETHYLPENTANE,100.205,-123.8,79.2,520.4,27.8,0.416,674,20,"29,182",417.37,226.19,-206.28,0.08,-50.099,8.96E-01,-6.36E-04,1.74E-07,15.6917,2740.15,-49.85,-19,105,,"C7H16, 2;2-DIMETHYLPENTANE"
328,C7H16,2;3-DIMETHYLPENTANE,100.205,,89.7,537.3,29.1,0.393,965,20,"30,409",,,-199.38,0.67,-7.046,7.05E-01,-3.73E-04,7.83E-08,15.7815,2850.64,-51.33,-11,115,,"C7H16, 2;3-DIMETHYLPENTANE"
329,C7H16,2;4-DIMETHYLPENTANE,100.205,-119.2,80.5,519.7,27.4,0.418,673,20,"29,517",,,-202.14,3.1,-7.046,6.84E-01,-3.73E-04,7.83E-08,15.7179,2744.78,-51.52,-17,105,,"C7H16, 2;4-DIMETHYLPENTANE"
330,C7H16,3;3-DIMETHYLPENTANE,100.205,-134.5,86,536.3,29.5,0.414,693,20,"29,668",,,-201.68,2.64,-7.046,6.84E-01,-3.73E-04,7.83E-08,15.719,2829.1,-47.83,-13,112,,"C7H16, 3;3-DIMETHYLPENTANE"
331,C7H16,3-ETHYLPENTANE,100.205,-118.6,93.4,540.6,28.9,0.416,698,20,"30,978",,,-189.79,11.01,-7.046,6.84E-01,-3.73E-04,7.83E-08,15.8317,2882.44,-53.26,-7,119,,"C7H16, 3-ETHYLPENTANE"
332,C7H16,2;2;3-TRIMETHYLBUTANE,100.205,-24.9,80.8,531.1,29.6,0.398,690,20,"28,968",,,-204.94,4.27,-22.944,7.52E-01,-4.42E-04,1.00E-07,15.6398,2764.4,-47.1,-19,106,,"C7H16, 2;2;3-TRIMETHYLBUTANE"
333,C7H16O,1-HEPTANOL,116.204,-34,176.3,633,30.4,0.435,822,20,"48,148",1287,361.83,-332.01,-121,4.907,6.78E-01,-3.45E-04,6.05E-08,15.3068,2626.42,-146.6,60,176,,"C7H16O, 1-HEPTANOL"
334,C8H4O3,PHTHALIC ANHYDRIDE,148.118,130.8,286.8,810,47.6,0.368,,,"49,614",,,-371.79,,-4.455,6.54E-01,-4.28E-04,1.01E-07,15.9984,4467.01,-83.15,136,342,,"C8H4O3, PHTHALIC ANHYDRIDE"
335,C8H8,STYRENE,104.152,-30.7,145.1,647,39.9,,906,20,"36,844",528.64,276.71,147.46,213.95,-28.248,6.16E-01,-4.02E-04,9.94E-08,16.0193,3328.57,-63.72,32,187,,"C8H8, STYRENE"